# vtk DataFile Version 2.0
generated by CFD-lab course output (written by Tobias Neckel) 
ASCII

DATASET STRUCTURED_GRID
DIMENSIONS  101 21 1 
POINTS 2121 float

0.000000 0.000000 0
0.100000 0.000000 0
0.200000 0.000000 0
0.300000 0.000000 0
0.400000 0.000000 0
0.500000 0.000000 0
0.600000 0.000000 0
0.700000 0.000000 0
0.800000 0.000000 0
0.900000 0.000000 0
1.000000 0.000000 0
1.100000 0.000000 0
1.200000 0.000000 0
1.300000 0.000000 0
1.400000 0.000000 0
1.500000 0.000000 0
1.600000 0.000000 0
1.700000 0.000000 0
1.800000 0.000000 0
1.900000 0.000000 0
2.000000 0.000000 0
2.100000 0.000000 0
2.200000 0.000000 0
2.300000 0.000000 0
2.400000 0.000000 0
2.500000 0.000000 0
2.600000 0.000000 0
2.700000 0.000000 0
2.800000 0.000000 0
2.900000 0.000000 0
3.000000 0.000000 0
3.100000 0.000000 0
3.200000 0.000000 0
3.300000 0.000000 0
3.400000 0.000000 0
3.500000 0.000000 0
3.600000 0.000000 0
3.700000 0.000000 0
3.800000 0.000000 0
3.900000 0.000000 0
4.000000 0.000000 0
4.100000 0.000000 0
4.200000 0.000000 0
4.300000 0.000000 0
4.400000 0.000000 0
4.500000 0.000000 0
4.600000 0.000000 0
4.700000 0.000000 0
4.800000 0.000000 0
4.900000 0.000000 0
5.000000 0.000000 0
5.100000 0.000000 0
5.200000 0.000000 0
5.300000 0.000000 0
5.400000 0.000000 0
5.500000 0.000000 0
5.600000 0.000000 0
5.700000 0.000000 0
5.800000 0.000000 0
5.900000 0.000000 0
6.000000 0.000000 0
6.100000 0.000000 0
6.200000 0.000000 0
6.300000 0.000000 0
6.400000 0.000000 0
6.500000 0.000000 0
6.600000 0.000000 0
6.700000 0.000000 0
6.800000 0.000000 0
6.900000 0.000000 0
7.000000 0.000000 0
7.100000 0.000000 0
7.200000 0.000000 0
7.300000 0.000000 0
7.400000 0.000000 0
7.500000 0.000000 0
7.600000 0.000000 0
7.700000 0.000000 0
7.800000 0.000000 0
7.900000 0.000000 0
8.000000 0.000000 0
8.100000 0.000000 0
8.200000 0.000000 0
8.300000 0.000000 0
8.400000 0.000000 0
8.500000 0.000000 0
8.600000 0.000000 0
8.700000 0.000000 0
8.800000 0.000000 0
8.900000 0.000000 0
9.000000 0.000000 0
9.100000 0.000000 0
9.200000 0.000000 0
9.300000 0.000000 0
9.400000 0.000000 0
9.500000 0.000000 0
9.600000 0.000000 0
9.700000 0.000000 0
9.800000 0.000000 0
9.900000 0.000000 0
10.000000 0.000000 0
0.000000 0.100000 0
0.100000 0.100000 0
0.200000 0.100000 0
0.300000 0.100000 0
0.400000 0.100000 0
0.500000 0.100000 0
0.600000 0.100000 0
0.700000 0.100000 0
0.800000 0.100000 0
0.900000 0.100000 0
1.000000 0.100000 0
1.100000 0.100000 0
1.200000 0.100000 0
1.300000 0.100000 0
1.400000 0.100000 0
1.500000 0.100000 0
1.600000 0.100000 0
1.700000 0.100000 0
1.800000 0.100000 0
1.900000 0.100000 0
2.000000 0.100000 0
2.100000 0.100000 0
2.200000 0.100000 0
2.300000 0.100000 0
2.400000 0.100000 0
2.500000 0.100000 0
2.600000 0.100000 0
2.700000 0.100000 0
2.800000 0.100000 0
2.900000 0.100000 0
3.000000 0.100000 0
3.100000 0.100000 0
3.200000 0.100000 0
3.300000 0.100000 0
3.400000 0.100000 0
3.500000 0.100000 0
3.600000 0.100000 0
3.700000 0.100000 0
3.800000 0.100000 0
3.900000 0.100000 0
4.000000 0.100000 0
4.100000 0.100000 0
4.200000 0.100000 0
4.300000 0.100000 0
4.400000 0.100000 0
4.500000 0.100000 0
4.600000 0.100000 0
4.700000 0.100000 0
4.800000 0.100000 0
4.900000 0.100000 0
5.000000 0.100000 0
5.100000 0.100000 0
5.200000 0.100000 0
5.300000 0.100000 0
5.400000 0.100000 0
5.500000 0.100000 0
5.600000 0.100000 0
5.700000 0.100000 0
5.800000 0.100000 0
5.900000 0.100000 0
6.000000 0.100000 0
6.100000 0.100000 0
6.200000 0.100000 0
6.300000 0.100000 0
6.400000 0.100000 0
6.500000 0.100000 0
6.600000 0.100000 0
6.700000 0.100000 0
6.800000 0.100000 0
6.900000 0.100000 0
7.000000 0.100000 0
7.100000 0.100000 0
7.200000 0.100000 0
7.300000 0.100000 0
7.400000 0.100000 0
7.500000 0.100000 0
7.600000 0.100000 0
7.700000 0.100000 0
7.800000 0.100000 0
7.900000 0.100000 0
8.000000 0.100000 0
8.100000 0.100000 0
8.200000 0.100000 0
8.300000 0.100000 0
8.400000 0.100000 0
8.500000 0.100000 0
8.600000 0.100000 0
8.700000 0.100000 0
8.800000 0.100000 0
8.900000 0.100000 0
9.000000 0.100000 0
9.100000 0.100000 0
9.200000 0.100000 0
9.300000 0.100000 0
9.400000 0.100000 0
9.500000 0.100000 0
9.600000 0.100000 0
9.700000 0.100000 0
9.800000 0.100000 0
9.900000 0.100000 0
10.000000 0.100000 0
0.000000 0.200000 0
0.100000 0.200000 0
0.200000 0.200000 0
0.300000 0.200000 0
0.400000 0.200000 0
0.500000 0.200000 0
0.600000 0.200000 0
0.700000 0.200000 0
0.800000 0.200000 0
0.900000 0.200000 0
1.000000 0.200000 0
1.100000 0.200000 0
1.200000 0.200000 0
1.300000 0.200000 0
1.400000 0.200000 0
1.500000 0.200000 0
1.600000 0.200000 0
1.700000 0.200000 0
1.800000 0.200000 0
1.900000 0.200000 0
2.000000 0.200000 0
2.100000 0.200000 0
2.200000 0.200000 0
2.300000 0.200000 0
2.400000 0.200000 0
2.500000 0.200000 0
2.600000 0.200000 0
2.700000 0.200000 0
2.800000 0.200000 0
2.900000 0.200000 0
3.000000 0.200000 0
3.100000 0.200000 0
3.200000 0.200000 0
3.300000 0.200000 0
3.400000 0.200000 0
3.500000 0.200000 0
3.600000 0.200000 0
3.700000 0.200000 0
3.800000 0.200000 0
3.900000 0.200000 0
4.000000 0.200000 0
4.100000 0.200000 0
4.200000 0.200000 0
4.300000 0.200000 0
4.400000 0.200000 0
4.500000 0.200000 0
4.600000 0.200000 0
4.700000 0.200000 0
4.800000 0.200000 0
4.900000 0.200000 0
5.000000 0.200000 0
5.100000 0.200000 0
5.200000 0.200000 0
5.300000 0.200000 0
5.400000 0.200000 0
5.500000 0.200000 0
5.600000 0.200000 0
5.700000 0.200000 0
5.800000 0.200000 0
5.900000 0.200000 0
6.000000 0.200000 0
6.100000 0.200000 0
6.200000 0.200000 0
6.300000 0.200000 0
6.400000 0.200000 0
6.500000 0.200000 0
6.600000 0.200000 0
6.700000 0.200000 0
6.800000 0.200000 0
6.900000 0.200000 0
7.000000 0.200000 0
7.100000 0.200000 0
7.200000 0.200000 0
7.300000 0.200000 0
7.400000 0.200000 0
7.500000 0.200000 0
7.600000 0.200000 0
7.700000 0.200000 0
7.800000 0.200000 0
7.900000 0.200000 0
8.000000 0.200000 0
8.100000 0.200000 0
8.200000 0.200000 0
8.300000 0.200000 0
8.400000 0.200000 0
8.500000 0.200000 0
8.600000 0.200000 0
8.700000 0.200000 0
8.800000 0.200000 0
8.900000 0.200000 0
9.000000 0.200000 0
9.100000 0.200000 0
9.200000 0.200000 0
9.300000 0.200000 0
9.400000 0.200000 0
9.500000 0.200000 0
9.600000 0.200000 0
9.700000 0.200000 0
9.800000 0.200000 0
9.900000 0.200000 0
10.000000 0.200000 0
0.000000 0.300000 0
0.100000 0.300000 0
0.200000 0.300000 0
0.300000 0.300000 0
0.400000 0.300000 0
0.500000 0.300000 0
0.600000 0.300000 0
0.700000 0.300000 0
0.800000 0.300000 0
0.900000 0.300000 0
1.000000 0.300000 0
1.100000 0.300000 0
1.200000 0.300000 0
1.300000 0.300000 0
1.400000 0.300000 0
1.500000 0.300000 0
1.600000 0.300000 0
1.700000 0.300000 0
1.800000 0.300000 0
1.900000 0.300000 0
2.000000 0.300000 0
2.100000 0.300000 0
2.200000 0.300000 0
2.300000 0.300000 0
2.400000 0.300000 0
2.500000 0.300000 0
2.600000 0.300000 0
2.700000 0.300000 0
2.800000 0.300000 0
2.900000 0.300000 0
3.000000 0.300000 0
3.100000 0.300000 0
3.200000 0.300000 0
3.300000 0.300000 0
3.400000 0.300000 0
3.500000 0.300000 0
3.600000 0.300000 0
3.700000 0.300000 0
3.800000 0.300000 0
3.900000 0.300000 0
4.000000 0.300000 0
4.100000 0.300000 0
4.200000 0.300000 0
4.300000 0.300000 0
4.400000 0.300000 0
4.500000 0.300000 0
4.600000 0.300000 0
4.700000 0.300000 0
4.800000 0.300000 0
4.900000 0.300000 0
5.000000 0.300000 0
5.100000 0.300000 0
5.200000 0.300000 0
5.300000 0.300000 0
5.400000 0.300000 0
5.500000 0.300000 0
5.600000 0.300000 0
5.700000 0.300000 0
5.800000 0.300000 0
5.900000 0.300000 0
6.000000 0.300000 0
6.100000 0.300000 0
6.200000 0.300000 0
6.300000 0.300000 0
6.400000 0.300000 0
6.500000 0.300000 0
6.600000 0.300000 0
6.700000 0.300000 0
6.800000 0.300000 0
6.900000 0.300000 0
7.000000 0.300000 0
7.100000 0.300000 0
7.200000 0.300000 0
7.300000 0.300000 0
7.400000 0.300000 0
7.500000 0.300000 0
7.600000 0.300000 0
7.700000 0.300000 0
7.800000 0.300000 0
7.900000 0.300000 0
8.000000 0.300000 0
8.100000 0.300000 0
8.200000 0.300000 0
8.300000 0.300000 0
8.400000 0.300000 0
8.500000 0.300000 0
8.600000 0.300000 0
8.700000 0.300000 0
8.800000 0.300000 0
8.900000 0.300000 0
9.000000 0.300000 0
9.100000 0.300000 0
9.200000 0.300000 0
9.300000 0.300000 0
9.400000 0.300000 0
9.500000 0.300000 0
9.600000 0.300000 0
9.700000 0.300000 0
9.800000 0.300000 0
9.900000 0.300000 0
10.000000 0.300000 0
0.000000 0.400000 0
0.100000 0.400000 0
0.200000 0.400000 0
0.300000 0.400000 0
0.400000 0.400000 0
0.500000 0.400000 0
0.600000 0.400000 0
0.700000 0.400000 0
0.800000 0.400000 0
0.900000 0.400000 0
1.000000 0.400000 0
1.100000 0.400000 0
1.200000 0.400000 0
1.300000 0.400000 0
1.400000 0.400000 0
1.500000 0.400000 0
1.600000 0.400000 0
1.700000 0.400000 0
1.800000 0.400000 0
1.900000 0.400000 0
2.000000 0.400000 0
2.100000 0.400000 0
2.200000 0.400000 0
2.300000 0.400000 0
2.400000 0.400000 0
2.500000 0.400000 0
2.600000 0.400000 0
2.700000 0.400000 0
2.800000 0.400000 0
2.900000 0.400000 0
3.000000 0.400000 0
3.100000 0.400000 0
3.200000 0.400000 0
3.300000 0.400000 0
3.400000 0.400000 0
3.500000 0.400000 0
3.600000 0.400000 0
3.700000 0.400000 0
3.800000 0.400000 0
3.900000 0.400000 0
4.000000 0.400000 0
4.100000 0.400000 0
4.200000 0.400000 0
4.300000 0.400000 0
4.400000 0.400000 0
4.500000 0.400000 0
4.600000 0.400000 0
4.700000 0.400000 0
4.800000 0.400000 0
4.900000 0.400000 0
5.000000 0.400000 0
5.100000 0.400000 0
5.200000 0.400000 0
5.300000 0.400000 0
5.400000 0.400000 0
5.500000 0.400000 0
5.600000 0.400000 0
5.700000 0.400000 0
5.800000 0.400000 0
5.900000 0.400000 0
6.000000 0.400000 0
6.100000 0.400000 0
6.200000 0.400000 0
6.300000 0.400000 0
6.400000 0.400000 0
6.500000 0.400000 0
6.600000 0.400000 0
6.700000 0.400000 0
6.800000 0.400000 0
6.900000 0.400000 0
7.000000 0.400000 0
7.100000 0.400000 0
7.200000 0.400000 0
7.300000 0.400000 0
7.400000 0.400000 0
7.500000 0.400000 0
7.600000 0.400000 0
7.700000 0.400000 0
7.800000 0.400000 0
7.900000 0.400000 0
8.000000 0.400000 0
8.100000 0.400000 0
8.200000 0.400000 0
8.300000 0.400000 0
8.400000 0.400000 0
8.500000 0.400000 0
8.600000 0.400000 0
[...]
POINT_DATA 2121 

VECTORS velocity float
0.000000 0.000000 0
0.000000 0.000000 0
0.000000 0.000000 0
0.000000 0.000000 0
0.000000 0.000000 0
0.000000 0.000000 0
0.000000 0.000000 0
0.000000 0.000000 0
0.000000 0.000000 0
0.000000 0.000000 0
0.000000 0.000000 0
-0.483014 0.000000 0
-0.461077 0.000000 0
-0.435407 0.000000 0
-0.409636 0.000000 0
-0.385184 0.000000 0
-0.362624 0.000000 0
-0.342137 0.000000 0
-0.323703 0.000000 0
-0.307203 0.000000 0
-0.292464 0.000000 0
-0.279298 0.000000 0
-0.267518 0.000000 0
-0.256948 0.000000 0
-0.247428 0.000000 0
-0.238817 0.000000 0
-0.230990 0.000000 0
-0.223839 0.000000 0
-0.217271 0.000000 0
-0.211206 0.000000 0
-0.205576 0.000000 0
-0.200323 0.000000 0
-0.195397 0.000000 0
-0.190756 0.000000 0
-0.186364 0.000000 0
-0.182190 0.000000 0
-0.178208 0.000000 0
-0.174397 0.000000 0
-0.170736 0.000000 0
-0.167210 0.000000 0
-0.163805 0.000000 0
-0.160509 0.000000 0
-0.157312 0.000000 0
-0.154206 0.000000 0
-0.151183 0.000000 0
-0.148237 0.000000 0
-0.145362 0.000000 0
-0.142555 0.000000 0
-0.139810 0.000000 0
-0.137124 0.000000 0
-0.134495 0.000000 0
-0.131919 0.000000 0
-0.129395 0.000000 0
-0.126920 0.000000 0
-0.124492 0.000000 0
-0.122109 0.000000 0
-0.119772 0.000000 0
-0.117477 0.000000 0
-0.115223 0.000000 0
-0.113010 0.000000 0
-0.110836 0.000000 0
-0.108701 0.000000 0
-0.106603 0.000000 0
-0.104541 0.000000 0
-0.102514 0.000000 0
-0.100522 0.000000 0
-0.098564 0.000000 0
-0.096638 0.000000 0
-0.094743 0.000000 0
-0.092879 0.000000 0
-0.091046 0.000000 0
-0.089241 0.000000 0
-0.087463 0.000000 0
-0.085713 0.000000 0
-0.083989 0.000000 0
-0.082290 0.000000 0
-0.080614 0.000000 0
-0.078961 0.000000 0
-0.077330 0.000000 0
-0.075718 0.000000 0
-0.074126 0.000000 0
-0.072551 0.000000 0
-0.070991 0.000000 0
-0.069445 0.000000 0
-0.067911 0.000000 0
-0.066384 0.000000 0
-0.064862 0.000000 0
-0.063340 0.000000 0
-0.061812 0.000000 0
-0.060269 0.000000 0
-0.058700 0.000000 0
-0.057087 0.000000 0
-0.055408 0.000000 0
-0.053621 0.000000 0
-0.051664 0.000000 0
-0.049424 0.000000 0
-0.046684 0.000000 0
-0.042979 0.000000 0
-0.037178 0.000000 0
-0.026147 0.000000 0
0.000000 0.000000 0
0.000000 0.000000 0
0.000000 0.000000 0
0.000000 0.000000 0
0.000000 0.000000 0
0.000000 0.000000 0
0.000000 0.000000 0
0.000000 0.000000 0
0.000000 0.000000 0
0.000000 0.000000 0
0.000000 0.000000 0
0.000000 0.005003 0
0.069644 -0.004322 0
0.124081 -0.022415 0
0.179047 -0.026319 0
0.232003 -0.025183 0
0.281471 -0.022068 0
0.326767 -0.018212 0
0.367718 -0.014205 0
0.404458 -0.010348 0
0.437283 -0.006795 0
0.466569 -0.003610 0
0.492709 -0.000810 0
0.516089 0.001618 0
0.537065 0.003703 0
0.555958 0.005478 0
0.573053 0.006980 0
0.588596 0.008243 0
0.602802 0.009298 0
0.615856 0.010174 0
0.627915 0.010897 0
0.639114 0.011488 0
0.649568 0.011966 0
0.659375 0.012348 0
0.668618 0.012647 0
0.677370 0.012875 0
0.685690 0.013043 0
0.693629 0.013158 0
0.701232 0.013230 0
0.708536 0.013263 0
0.715574 0.013265 0
0.722371 0.013238 0
0.728952 0.013187 0
0.735336 0.013117 0
0.741540 0.013029 0
0.747579 0.012926 0
0.753466 0.012810 0
0.759210 0.012685 0
0.764821 0.012550 0
0.770308 0.012407 0
0.775676 0.012259 0
0.780932 0.012105 0
0.786082 0.011947 0
0.791129 0.011786 0
0.796079 0.011623 0
0.800934 0.011457 0
0.805697 0.011290 0
0.810373 0.011123 0
0.814963 0.010955 0
0.819470 0.010788 0
0.823897 0.010621 0
0.828245 0.010455 0
0.832516 0.010290 0
0.836713 0.010126 0
0.840838 0.009965 0
0.844892 0.009805 0
0.848878 0.009648 0
0.852796 0.009493 0
0.856650 0.009341 0
0.860440 0.009192 0
0.864169 0.009046 0
0.867838 0.008903 0
0.871450 0.008764 0
0.875006 0.008627 0
0.878508 0.008495 0
0.881959 0.008366 0
0.885359 0.008241 0
0.888712 0.008119 0
0.892020 0.008002 0
0.895285 0.007888 0
0.898509 0.007778 0
0.901695 0.007672 0
0.904847 0.007568 0
0.907968 0.007468 0
0.911061 0.007370 0
0.914131 0.007274 0
0.917184 0.007178 0
0.920227 0.007081 0
0.923268 0.006980 0
0.926320 0.006872 0
0.929398 0.006752 0
0.932523 0.006610 0
0.935726 0.006434 0
0.939051 0.006201 0
0.942564 0.005873 0
0.946369 0.005377 0
0.950636 0.004558 0
0.955655 0.003065 0
0.961939 -0.000017 0
0.970409 -0.007355 0
0.982588 -0.027707 0
1.000000 -0.021412 0
0.000000 0.000000 0
0.000000 0.000000 0
0.000000 0.000000 0
0.000000 0.000000 0
0.000000 0.000000 0
0.000000 0.000000 0
0.000000 0.000000 0
0.000000 0.000000 0
0.000000 0.000000 0
0.000000 0.000000 0
0.000000 -0.035024 0
0.101787 -0.073576 0
0.169744 -0.077677 0
0.230864 -0.076292 0
0.286707 -0.070907 0
0.337416 -0.063375 0
0.383051 -0.055002 0
0.423840 -0.046603 0
0.460148 -0.038648 0
0.492417 -0.031377 0
0.521109 -0.024887 0
0.546668 -0.019187 0
0.569507 -0.014239 0
0.589993 -0.009978 0
0.608452 -0.006331 0
0.625167 -0.003225 0
0.640380 -0.000590 0
0.654303 0.001640 0
0.667112 0.003520 0
0.678962 0.005100 0
0.689981 0.006424 0
0.700282 0.007529 0
0.709959 0.008446 0
0.719091 0.009204 0
0.727747 0.009824 0
0.735985 0.010329 0
0.743854 0.010734 0
0.751398 0.011053 0
0.758651 0.011300 0
0.765645 0.011485 0
0.772405 0.011617 0
0.778954 0.011703 0
0.785311 0.011751 0
0.791492 0.011766 0
0.797511 0.011752 0
0.803381 0.011714 0
0.809111 0.011657 0
0.814710 0.011581 0
0.820186 0.011491 0
0.825546 0.011389 0
0.830796 0.011276 0
0.835939 0.011155 0
0.840982 0.011027 0
0.845928 0.010892 0
0.850780 0.010753 0
0.855542 0.010610 0
0.860216 0.010465 0
0.864805 0.010317 0
0.869312 0.010168 0
0.873738 0.010018 0
0.878087 0.009868 0
0.882359 0.009718 0
0.886558 0.009568 0
0.890684 0.009420 0
0.894740 0.009272 0
0.898727 0.009127 0
0.902648 0.008983 0
0.906504 0.008842 0
0.910297 0.008702 0
0.914029 0.008566 0
0.917701 0.008432 0
0.921316 0.008301 0
0.924876 0.008173 0
0.928381 0.008048 0
0.931835 0.007926 0
0.935239 0.007808 0
0.938596 0.007693 0
0.941907 0.007581 0
0.945175 0.007472 0
0.948403 0.007366 0
0.951592 0.007263 0
0.954746 0.007161 0
0.957868 0.007061 0
0.960962 0.006960 0
0.964031 0.006858 0
0.967082 0.006753 0
0.970119 0.006640 0
0.973151 0.006516 0
0.976187 0.006374 0
0.979240 0.006204 0
0.982327 0.005991 0
0.985469 0.005713 0
0.988697 0.005334 0
0.992051 0.004794 0
0.995582 0.003990 0
0.999350 0.002736 0
1.003398 0.000687 0
1.007641 -0.002786 0
1.011461 -0.008694 0
1.012239 -0.017638 0
1.000000 -0.011435 0
0.000000 0.000000 0
0.000000 0.000000 0
0.000000 0.000000 0
0.000000 0.000000 0
0.000000 0.000000 0
0.000000 0.000000 0
0.000000 0.000000 0
0.000000 0.000000 0
0.000000 0.000000 0
0.000000 0.000000 0
0.000000 -0.071522 0
0.099047 -0.142255 0
0.172219 -0.138421 0
0.237930 -0.130264 0
0.296512 -0.118778 0
0.348398 -0.105522 0
0.394146 -0.091817 0
0.434403 -0.078558 0
0.469836 -0.066264 0
0.501086 -0.055179 0
0.528736 -0.045374 0
0.553301 -0.036814 0
0.575227 -0.029409 0
0.594897 -0.023046 0
0.612638 -0.017603 0
0.628727 -0.012962 0
0.643401 -0.009017 0
0.656858 -0.005671 0
0.669270 -0.002837 0
0.680779 -0.000442 0
0.691508 0.001577 0
0.701560 0.003276 0
0.711024 0.004702 0
0.719975 0.005895 0
0.728477 0.006889 0
0.736583 0.007713 0
0.744340 0.008392 0
0.751787 0.008948 0
0.758959 0.009398 0
0.765882 0.009758 0
0.772582 0.010040 0
0.779080 0.010257 0
0.785393 0.010418 0
0.791537 0.010530 0
0.797525 0.010602 0
0.803367 0.010639 0
0.809074 0.010646 0
0.814654 0.010628 0
0.820113 0.010588 0
0.825459 0.010530 0
0.830697 0.010457 0
0.835831 0.010370 0
0.840865 0.010273 0
0.845804 0.010167 0
0.850651 0.010054 0
0.855408 0.009934 0
0.860079 0.009810 0
0.864666 0.009682 0
0.869171 0.009550 0
0.873596 0.009417 0
0.877944 0.009282 0
0.882216 0.009147 0
0.886415 0.009011 0
0.890542 0.008875 0
0.894599 0.008740 0
0.898588 0.008606 0
0.902511 0.008473 0
0.906369 0.008342 0
0.910164 0.008212 0
0.913898 0.008085 0
0.917573 0.007960 0
0.921191 0.007838 0
0.924753 0.007718 0
0.928262 0.007601 0
0.931719 0.007487 0
0.935126 0.007375 0
0.938485 0.007266 0
0.941799 0.007160 0
0.945070 0.007057 0
0.948300 0.006955 0
0.951491 0.006855 0
0.954646 0.006756 0
0.957768 0.006656 0
0.960860 0.006555 0
0.963926 0.006450 0
0.966970 0.006338 0
0.969996 0.006214 0
0.973010 0.006073 0
0.976020 0.005907 0
0.979033 0.005702 0
0.982061 0.005441 0
0.985114 0.005098 0
0.988207 0.004632 0
0.991351 0.003983 0
0.994551 0.003058 0
0.997781 0.001712 0
1.000945 -0.000262 0
1.003765 -0.003119 0
1.005558 -0.006991 0
1.004910 -0.011278 0
1.000000 -0.006688 0
0.000000 0.000000 0
0.000000 0.000000 0
0.000000 0.000000 0
0.000000 0.000000 0
0.000000 0.000000 0
0.000000 0.000000 0
0.000000 0.000000 0
0.000000 0.000000 0
0.000000 0.000000 0
0.000000 0.000000 0
0.000000 -0.108803 0
0.103465 -0.213975 0
0.182130 -0.203481 0
0.252095 -0.187562 0
0.312981 -0.168414 0
0.365484 -0.148115 0
0.410696 -0.128185 0
0.449748 -0.109549 0
0.483664 -0.092669 0
0.513310 -0.077702 0
0.539402 -0.064616 0
0.562525 -0.053286 0
0.583153 -0.043541 0
0.601679 -0.035195 0
0.618422 -0.028072 0
0.633649 -0.022006 0
0.647581 -0.016848 0
0.660403 -0.012469 0
0.672271 -0.008756 0
0.683317 -0.005611 0
0.693650 -0.002951 0
0.703364 -0.000704 0
0.712541 0.001190 0
0.721246 0.002784 0
0.729538 0.004122 0
0.737465 0.005241 0
0.745070 0.006174 0
0.752387 0.006947 0
0.759447 0.007585 0
0.766275 0.008106 0
0.772894 0.008529 0
0.779323 0.008866 0
0.785577 0.009132 0
0.791670 0.009335 0
0.797614 0.009486 0
0.803420 0.009593 0
0.809096 0.009660 0
0.814649 0.009695 0
0.820086 0.009703 0
0.825412 0.009686 0
0.830634 0.009650 0
0.835754 0.009597 0
0.840777 0.009530 0
0.845707 0.009451 0
0.850546 0.009361 0
0.855297 0.009264 0
0.859962 0.009160 0
0.864545 0.009050 0
0.869046 0.008936 0
0.873469 0.008819 0
0.877816 0.008699 0
0.882087 0.008578 0
0.886285 0.008455 0
0.890413 0.008332 0
0.894470 0.008208 0
0.898460 0.008085 0
0.902384 0.007963 0
0.906243 0.007842 0
0.910040 0.007723 0
0.913777 0.007605 0
0.917454 0.007489 0
0.921074 0.007375 0
0.924639 0.007263 0
0.928150 0.007154 0
0.931609 0.007047 0
0.935019 0.006942 0
0.938381 0.006840 0
0.941698 0.006740 0
0.944970 0.006642 0
0.948202 0.006545 0
0.951394 0.006450 0
0.954549 0.006354 0
0.957669 0.006257 0
0.960758 0.006157 0
0.963818 0.006052 0
0.966851 0.005937 0
0.969862 0.005809 0
0.972854 0.005660 0
0.975831 0.005481 0
0.978796 0.005260 0
0.981754 0.004978 0
0.984708 0.004609 0
0.987656 0.004117 0
0.990589 0.003453 0
0.993482 0.002548 0
0.996273 0.001319 0
0.998834 -0.000326 0
1.000915 -0.002431 0
1.002099 -0.004869 0
1.001846 -0.007105 0
1.000000 -0.004036 0
0.000000 0.000000 0
0.000000 0.000000 0
0.000000 0.000000 0
0.000000 0.000000 0
0.000000 0.000000 0
0.000000 0.000000 0
0.000000 0.000000 0
0.000000 0.000000 0
0.000000 0.000000 0
0.000000 0.000000 0
0.000000 -0.149707 0
0.113965 -0.292546 0
0.200711 -0.273959 0
0.275310 -0.248082 0
0.337799 -0.219198 0
0.389825 -0.190338 0
0.433366 -0.163257 0
0.470190 -0.138781 0
0.501719 -0.117163 0
0.529044 -0.098342 0
0.552992 -0.082104 0
0.574193 -0.068175 0
0.593134 -0.056272 0
0.610192 -0.046124 0
0.625670 -0.037486 0
0.639812 -0.030142 0
0.652816 -0.023902 0
0.664846 -0.018604 0
0.676038 -0.014109 0
0.686507 -0.010297 0
0.696349 -0.007067 0
0.705646 -0.004334 0
0.714465 -0.002023 0
0.722867 -0.000071 0
0.730899 0.001573 0
0.738605 0.002955 0
0.746021 0.004114 0
0.753177 0.005082 0
0.760099 0.005887 0
0.766810 0.006554 0
0.773329 0.007101 0
0.779672 0.007548 0
0.785853 0.007907 0
0.791883 0.008193 0
0.797775 0.008416 0
0.803535 0.008585 0
0.809171 0.008707 0
0.814692 0.008791 0
0.820101 0.008841 0
0.825403 0.008863 0
0.830605 0.008861 0
0.835708 0.008839 0
0.840717 0.008799 0
0.845634 0.008745 0
0.850463 0.008678 0
0.855205 0.008601 0
0.859864 0.008516 0
0.864441 0.008424 0
0.868938 0.008327 0
0.873358 0.008225 0
0.877702 0.008119 0
0.881971 0.008011 0
0.886169 0.007901 0
0.890295 0.007790 0
0.894353 0.007678 0
0.898343 0.007566 0
0.902267 0.007454 0
0.906128 0.007343 0
0.909926 0.007233 0
0.913664 0.007124 0
0.917343 0.007017 0
0.920965 0.006912 0
0.924532 0.006808 0
0.928045 0.006706 0
0.931507 0.006607 0
0.934919 0.006509 0
0.938283 0.006414 0
0.941602 0.006320 0
0.944876 0.006228 0
0.948108 0.006138 0
0.951301 0.006047 0
0.954455 0.005956 0
0.957573 0.005864 0
0.960658 0.005768 0
0.963710 0.005665 0
0.966732 0.005553 0
0.969726 0.005427 0
0.972693 0.005279 0
0.975635 0.005102 0
0.978551 0.004882 0
0.981439 0.004604 0
0.984296 0.004245 0
0.987109 0.003777 0
0.989860 0.003165 0
0.992510 0.002368 0
0.994993 0.001344 0
0.997199 0.000073 0
0.998963 -0.001409 0
1.000076 -0.002946 0
1.000380 -0.004198 0
1.000000 -0.002349 0
0.000000 0.000000 0
0.000000 0.000000 0
0.000000 0.000000 0
0.000000 0.000000 0
0.000000 0.000000 0
0.000000 0.000000 0
0.000000 0.000000 0
0.000000 0.000000 0
0.000000 0.000000 0
0.000000 0.000000 0
0.000000 -0.197466 0
0.132950 -0.382816 0
0.231411 -0.351718 0
0.310601 -0.311604 0
0.373044 -0.269952 0
0.422614 -0.230777 0
0.462712 -0.195722 0
0.495887 -0.165154 0
0.523936 -0.138859 0
0.548109 -0.116399 0
0.569282 -0.097282 0
0.588075 -0.081039 0
0.604945 -0.067248 0
0.620234 -0.055543 0
0.634202 -0.045608 0
0.647059 -0.037174 0
0.658969 -0.030015 0
0.670068 -0.023937 0
0.680469 -0.018779 0
0.690265 -0.014402 0
0.699533 -0.010689 0
0.708342 -0.007542 0
0.716746 -0.004876 0
0.724792 -0.002621 0
0.732523 -0.000716 0
0.739971 0.000891 0
0.747167 0.002243 0
0.754135 0.003378 0
0.760896 0.004328 0
0.767470 0.005119 0
0.773872 0.005775 0
0.780115 0.006315 0
0.786211 0.006756 0
0.792169 0.007114 0
0.797997 0.007399 0
0.803704 0.007622 0
0.809296 0.007794 0
0.814777 0.007920 0
0.820153 0.008009 0
0.825428 0.008065 0
0.830606 0.008093 0
0.835689 0.008098 0
0.840681 0.008083 0
0.845584 0.008051 0
0.850401 0.008006 0
0.855133 0.007948 0
0.859784 0.007881 0
0.864354 0.007805 0
0.868846 0.007723 0
0.873261 0.007635 0
0.877601 0.007543 0
0.881868 0.007448 0
0.886064 0.007350 0
0.890189 0.007251 0
0.894246 0.007150 0
0.898236 0.007048 0
0.902161 0.006947 0
0.906022 0.006845 0
0.909821 0.006744 0
0.913560 0.006645 0
0.917241 0.006546 0
0.920865 0.006449 0
0.924433 0.006353 0
0.927949 0.006259 0
0.931412 0.006167 0
0.934826 0.006077 0
0.938192 0.005989 0
0.941512 0.005902 0
0.944788 0.005816 0
0.948021 0.005732 0
0.951213 0.005648 0
0.954367 0.005563 0
0.957483 0.005477 0
0.960562 0.005387 0
0.963607 0.005291 0
0.966618 0.005187 0
0.969596 0.005069 0
0.972539 0.004931 0
0.975447 0.004767 0
0.978317 0.004565 0
0.981142 0.004313 0
0.983914 0.003993 0
0.986616 0.003585 0
0.989223 0.003066 0
0.991698 0.002416 0
0.993984 0.001620 0
0.996003 0.000687 0
0.997660 -0.000328 0
0.998866 -0.001304 0
0.999600 -0.002041 0
1.000000 -0.001161 0
0.000000 0.000000 0
0.000000 0.000000 0
0.000000 0.000000 0
0.000000 0.000000 0
0.000000 0.000000 0
0.000000 0.000000 0
0.000000 0.000000 0
0.000000 0.000000 0
0.000000 0.000000 0
0.000000 0.000000 0
0.000000 -0.257320 0
0.167665 -0.492040 0
0.281350 -0.438484 0
0.362604 -0.376656 0
0.421126 -0.318223 0
0.464836 -0.267093 0
0.498943 -0.223696 0
0.526667 -0.187254 0
0.549984 -0.156720 0
0.570131 -0.131111 0
0.587903 -0.109586 0
0.603832 -0.091451 0
0.618289 -0.076140 0
0.631543 -0.063193 0
0.643793 -0.052228 0
0.655197 -0.042933 0
0.665876 -0.035046 0
0.675932 -0.028353 0
0.685447 -0.022669 0
0.694490 -0.017843 0
0.703118 -0.013746 0
0.711381 -0.010270 0
0.719321 -0.007321 0
0.726971 -0.004822 0
0.734364 -0.002707 0
0.741524 -0.000919 0
0.748474 0.000589 0
0.755232 0.001859 0
0.761815 0.002926 0
0.768236 0.003819 0
0.774507 0.004563 0
0.780638 0.005180 0
0.786638 0.005689 0
0.792515 0.006106 0
0.798274 0.006443 0
0.803921 0.006713 0
0.809462 0.006925 0
0.814900 0.007088 0
0.820240 0.007209 0
0.825483 0.007294 0
0.830634 0.007349 0
0.835695 0.007377 0
0.840667 0.007385 0
0.845554 0.007373 0
0.850357 0.007346 0
0.855079 0.007306 0
0.859720 0.007254 0
0.864282 0.007194 0
0.868767 0.007126 0
0.873178 0.007051 0
0.877514 0.006972 0
0.881777 0.006889 0
0.885970 0.006802 0
0.890094 0.006714 0
0.894150 0.006623 0
0.898139 0.006532 0
0.902064 0.006440 0
0.905925 0.006348 0
0.909725 0.006256 0
0.913465 0.006165 0
0.917147 0.006075 0
0.920772 0.005986 0
0.924342 0.005899 0
0.927859 0.005812 0
0.931325 0.005728 0
0.934741 0.005645 0
0.938108 0.005564 0
0.941430 0.005484 0
0.944707 0.005405 0
0.947941 0.005328 0
0.951133 0.005251 0
0.954285 0.005174 0
0.957399 0.005095 0
0.960475 0.005014 0
0.963513 0.004929 0
0.966515 0.004836 0
0.969478 0.004732 0
0.972401 0.004613 0
0.975281 0.004472 0
0.978112 0.004302 0
0.980885 0.004092 0
0.983590 0.003831 0
0.986207 0.003506 0
0.988711 0.003103 0
0.991070 0.002612 0
0.993239 0.002035 0
0.995168 0.001387 0
0.996808 0.000715 0
0.998130 0.000102 0
0.999157 -0.000339 0
1.000000 -0.000251 0
0.000000 0.000000 0
0.000000 0.000000 0
0.000000 0.000000 0
0.000000 0.000000 0
0.000000 0.000000 0
0.000000 0.000000 0
0.000000 0.000000 0
0.000000 0.000000 0
0.000000 0.000000 0
0.000000 0.000000 0
0.000000 -0.339744 0
0.237567 -0.632185 0
0.363681 -0.533509 0
0.437303 -0.438307 0
0.483982 -0.359185 0
0.516621 -0.295674 0
0.541514 -0.244714 0
0.561810 -0.203442 0
0.579159 -0.169656 0
0.594482 -0.141740 0
0.608319 -0.118498 0
0.621012 -0.099037 0
0.632787 -0.082670 0
0.643803 -0.068860 0
0.654178 -0.057180 0
0.664004 -0.047283 0
0.673351 -0.038887 0
0.682280 -0.031758 0
0.690838 -0.025702 0
0.699069 -0.020557 0
0.707007 -0.016184 0
0.714683 -0.012470 0
0.722121 -0.009317 0
0.729345 -0.006641 0
0.736374 -0.004372 0
0.743223 -0.002451 0
0.749908 -0.000827 0
0.756439 0.000544 0
0.762829 0.001698 0
0.769084 0.002667 0
0.775214 0.003478 0
0.781224 0.004154 0
0.787121 0.004715 0
0.792910 0.005177 0
0.798594 0.005555 0
0.804177 0.005860 0
0.809663 0.006105 0
0.815054 0.006297 0
0.820354 0.006444 0
0.825564 0.006553 0
0.830685 0.006630 0
0.835721 0.006679 0
0.840673 0.006705 0
0.845543 0.006711 0
0.850331 0.006700 0
0.855040 0.006675 0
0.859670 0.006638 0
0.864224 0.006591 0
0.868702 0.006535 0
0.873106 0.006473 0
0.877438 0.006406 0
0.881698 0.006334 0
0.885888 0.006258 0
0.890009 0.006180 0
0.894064 0.006100 0
0.898052 0.006018 0
0.901976 0.005935 0
0.905838 0.005852 0
0.909638 0.005770 0
0.913379 0.005687 0
0.917062 0.005605 0
0.920688 0.005524 0
0.924259 0.005444 0
0.927778 0.005366 0
0.931245 0.005289 0
0.934662 0.005213 0
0.938031 0.005139 0
0.941354 0.005067 0
0.944633 0.004996 0
0.947867 0.004926 0
0.951060 0.004857 0
0.954212 0.004788 0
0.957325 0.004719 0
0.960398 0.004649 0
0.963432 0.004576 0
0.966426 0.004498 0
0.969378 0.004414 0
0.972286 0.004319 0
0.975145 0.004209 0
0.977948 0.004080 0
0.980684 0.003925 0
0.983341 0.003736 0
0.985900 0.003506 0
0.988337 0.003228 0
0.990624 0.002899 0
0.992729 0.002522 0
0.994620 0.002112 0
0.996274 0.001702 0
0.997690 0.001340 0
0.998903 0.001087 0
1.000000 0.000498 0
0.000000 0.000000 0
-0.500000 0.000000 0
-0.500000 0.000000 0
-0.500000 0.000000 0
-0.500000 0.000000 0
-0.500000 0.000000 0
-0.500000 0.000000 0
-0.500000 0.000000 0
-0.500000 0.000000 0
-0.500000 0.000000 0
0.000000 -0.469428 0
0.400069 -0.823656 0
0.498461 -0.625050 0
0.538905 -0.483871 0
0.560838 -0.384535 0
0.576111 -0.311700 0
0.588642 -0.256043 0
0.599856 -0.212141 0
0.610317 -0.176723 0
0.620271 -0.147692 0
0.629832 -0.123631 0
0.639060 -0.103530 0
0.647992 -0.086643 0
0.656652 -0.072399 0
0.665060 -0.060348 0
0.673234 -0.050133 0
0.681189 -0.041461 0
0.688940 -0.034092 0
0.696500 -0.027826 0
0.703882 -0.022497 0
0.711099 -0.017965 0
0.718160 -0.014111 0
0.725074 -0.010835 0
0.731851 -0.008052 0
0.738499 -0.005690 0
0.745023 -0.003687 0
0.751429 -0.001991 0
0.757723 -0.000556 0
0.763909 0.000654 0
0.769991 0.001672 0
0.775973 0.002527 0
0.781857 0.003243 0
0.787645 0.003838 0
0.793341 0.004332 0
0.798946 0.004738 0
0.804462 0.005070 0
0.809890 0.005338 0
0.815233 0.005551 0
0.820490 0.005718 0
0.825664 0.005846 0
0.830756 0.005940 0
0.835766 0.006005 0
0.840696 0.006046 0
0.845546 0.006066 0
0.850319 0.006069 0
0.855014 0.006056 0
0.859634 0.006032 0
0.864178 0.005997 0
0.868649 0.005953 0
0.873047 0.005902 0
0.877373 0.005845 0
0.881629 0.005783 0
0.885816 0.005718 0
0.889935 0.005649 0
0.893987 0.005578 0
0.897974 0.005506 0
0.901898 0.005432 0
0.905759 0.005358 0
0.909560 0.005284 0
0.913301 0.005209 0
0.916984 0.005136 0
0.920611 0.005063 0